<?xml version="1.0"?>
<VTKFile type="UnstructuredGrid" version="0.1" byte_order="LittleEndian" compressor="vtkZLibDataCompressor">
<UnstructuredGrid>
<Piece NumberOfPoints="       123" NumberOfCells="       209">
<PointData Scalars="node,upotential">
<DataArray type="Float32" Name="node" format="ascii">
           1
           2
           3
           4
           5
           6
           7
           8
           9
          10
          11
          12
          13
          14
          15
          16
          17
          18
          19
          20
          21
          22
          23
          24
          25
          26
          27
          28
          29
          30
          31
          32
          33
          34
          35
          36
          37
          38
          39
          40
          41
          42
          43
          44
          45
          46
          47
          48
          49
          50
          51
          52
          53
          54
          55
          56
          57
          58
          59
          60
          61
          62
          63
          64
          65
          66
          67
          68
          69
          70
          71
          72
          73
          74
          75
          76
          77
          78
          79
          80
          81
          82
          83
          84
          85
          86
          87
          88
          89
          90
          91
          92
          93
          94
          95
          96
          97
          98
          99
         100
         101
         102
         103
         104
         105
         106
         107
         108
         109
         110
         111
         112
         113
         114
         115
         116
         117
         118
         119
         120
         121
         122
         123
</DataArray>
<DataArray type="Float32" Name="upotential" format="ascii">
  -1.0000000000000000     
  -1.0000000000000000     
  -1.0000000000000000     
  -1.0000000000000000     
  -1.0000000000000000     
  -1.0000000000000000     
  -1.0000000000000000     
  -1.0000000000000000     
  -1.0000000000000000     
  -1.0000000000000000     
  -1.0000000000000000     
  -1.0000000000000000     
  -1.0000000000000000     
  -1.0000000000000000     
  -1.0000000000000000     
  -1.0000000000000000     
  -1.0000000000000000     
  -1.0000000000000000     
  -1.0000000000000000     
  -1.0000000000000000     
  -1.0000000000000000     
  -1.0000000000000000     
  -1.0000000000000000     
  -1.0000000000000000     
  -1.0000000000000000     
  -1.0000000000000000     
  -1.0000000000000000     
  -1.0000000000000000     
  -1.0000000000000000     
  -1.0000000000000000     
  -1.0000000000000000     
  -1.0000000000000000     
  -1.0000000000000000     
  -1.0000000000000000     
  -1.0000000000000000     
  -1.0000000000000000     
  -1.0000000000000000     
  -1.0000000000000000     
  -1.0000000000000000     
  -1.0000000000000000     
  -1.0000000000000000     
  -1.0000000000000000     
  -1.0000000000000000     
  -1.0000000000000000     
  -1.0000000000000000     
  -1.0000000000000000     
  -1.0000000000000000     
  -1.0000000000000000     
  -1.0000000000000000     
  -1.0000000000000000     
  -1.0000000000000000     
  -1.0000000000000000     
  -1.0000000000000000     
  -1.0000000000000000     
  -1.0000000000000000     
  -1.0000000000000000     
  -1.0000000000000000     
  -1.0000000000000000     
  -1.0000000000000000     
  -1.0000000000000000     
  -1.0000000000000000     
  -1.0000000000000000     
  -1.0000000000000000     
  -1.0000000000000000     
  -1.0000000000000000     
  -1.0000000000000000     
  -1.0000000000000000     
  -1.0000000000000000     
  -1.0000000000000000     
  -1.0000000000000000     
  -1.0000000000000000     
  -1.0000000000000000     
  -1.0000000000000000     
  -1.0000000000000000     
  -1.0000000000000000     
  -1.0000000000000000     
  -1.0000000000000000     
  -1.0000000000000000     
  -1.0000000000000000     
  -1.0000000000000000     
  -1.0000000000000000     
  -1.0000000000000000     
  -1.0000000000000000     
  -1.0000000000000000     
  -1.0000000000000000     
  -1.0000000000000000     
  -1.0000000000000000     
  -1.0000000000000000     
  -1.0000000000000000     
  -1.0000000000000000     
  -1.0000000000000000     
  -1.0000000000000000     
  -1.0000000000000000     
  -1.0000000000000000     
  -1.0000000000000000     
  -1.0000000000000000     
  -1.0000000000000000     
  -1.0000000000000000     
  -1.0000000000000000     
  -1.0000000000000000     
  -1.0000000000000000     
  -1.0000000000000000     
  -1.0000000000000000     
  -1.0000000000000000     
  -1.0000000000000000     
  -1.0000000000000000     
  -1.0000000000000000     
  -1.0000000000000000     
  -1.0000000000000000     
  -1.0000000000000000     
  -1.0000000000000000     
  -1.0000000000000000     
  -1.0000000000000000     
  -1.0000000000000000     
  -1.0000000000000000     
  -1.0000000000000000     
  -1.0000000000000000     
  -1.0000000000000000     
  -1.0000000000000000     
  -1.0000000000000000     
  -1.0000000000000000     
  -1.0000000000000000     
  -1.0000000000000000     
</DataArray>
</PointData>
<CellData Vectors="normale" Scalars="elemBCid,qpotential">
<DataArray type="Float32" Name="normale" NumberOfComponents="3" format="ascii">
-0.872214882E-01 -0.356862586 0.930076076
0.218297679E-01 0.813977266E-01 0.996442608
-0.844149269E-02 0.159616967 0.987142930
0.370357220E-01 0.488459346E-01 0.998119447
-0.825453704E-01 -0.427074869 0.900440624
-0.822751324E-01 -0.447748961 0.890366032
-0.826403422E-01 -0.428443432 0.899781529
-0.928460797E-01 -0.402660048 0.910628624
0.331420732E-01 0.376729874E-01 0.998740381
-0.768057635E-01 -0.388606341 0.918197139
0.345522337E-01 0.360873407E-01 0.998751144
-0.482806810E-01 -0.397396847 0.916375863
-0.237539537E-01 -0.440333426 0.897520041
-0.479631377E-01 -0.424237490 0.904279873
0.389375145 -0.213927514 0.895891743
0.424261047 -0.230282038 0.875769802
0.248330537 -0.575086219E-01 0.966966754
0.334091373 -0.258918528 0.906280393
0.101033158 -0.354688005 0.929509936
0.896356458E-01 -0.259562039 0.961557590
0.838944313E-01 -0.295589935 0.951624041
0.256857129 -0.293347838 0.920853659
0.259301624 -0.286785359 0.922234691
0.341907756E-02 -0.457603020E-01 0.998946598
0.219490652 -0.540442972E-01 0.974116557
0.420308871E-01 -0.442582676 0.895742139
0.318972526E-01 -0.398060152 0.916804603
0.203571833E-01 -0.425709452 0.904630890
0.298853747 -0.361585141 0.883143603
0.261797498 -0.348713025 0.899922939
0.265102508 -0.354249707 0.896787492
0.180544609 -0.334478019 0.924947620
0.157386170 -0.263234417E-01 0.987186239
0.139887357 0.578885136E-01 0.988473797
0.125100757 0.287068027E-01 0.991728652
0.100301624 0.685587093E-01 0.992592206
0.112485069 0.454624535E-01 0.992612852
0.116609554 0.539072565E-01 0.991713779
0.649276414E-01 0.109230971E-01 0.997830190
0.691480316E-01 0.273694648E-01 0.997230897
0.167487510 0.266014869E-01 0.985515243
0.163166628 0.181353146E-01 0.986431833
0.893687654E-01 0.459642663E-01 0.994937440
0.868780566E-01 0.564993927E-01 0.994615515
0.190636298 -0.313466210 0.930267025
0.400332015 -0.187862976 0.896906785
0.307207222 -0.100051274 0.946368567
0.125210873 -0.247833167 0.960677344
0.837105236E-01 -0.571826533E-02 0.996473707
0.289874995 -0.208923986 0.933982471
0.227767152 -0.236328654 0.944600917
0.299056002 -0.155780956 0.941433907
0.222763501 -0.923185753E-01 0.970491475
0.758958325E-01 0.599148735E-01 0.995314036
0.870852988E-01 0.426821421E-01 0.995286082
0.715028780E-01 0.437090936E-01 0.996482239
0.687153980E-01 0.525774874E-01 0.996249869
0.210910666 -0.405905892 0.889245241
0.187194900 -0.346780405 0.919076395
0.157264714 -0.385972023 0.909006824
0.159572108 -0.393322476 0.905446946
0.223835263 -0.250977725 0.941757908
0.163561721 -0.281659429 0.945471062
0.188573778 0.231793827E-01 0.981785438
0.176093761 -0.127410044E-01 0.984290940
0.209930126 -0.304915048E-01 0.977240815
0.357662830 -0.311804106 0.880258769
0.276973830 -0.317590101 0.906874868
0.116438240 -0.429541413 0.895508968
0.858745157E-01 -0.419781594 0.903553530
0.104067228 -0.373709870 0.921689180
0.805726778E-01 -0.397940964 0.913865982
-0.717493704E-01 -0.279290829 0.957522146
-0.454660640E-01 -0.249634626 0.967272139
-0.198972449E-02 -0.273016699 0.962007236
0.425992583E-01 0.289716956E-02 0.999088039
0.486397700E-01 -0.211554417E-01 0.998592319
0.523142895E-01 -0.319991235 0.945975066
0.601565942E-01 -0.348612931 0.935334276
0.249351377E-01 -0.384755834 0.922681520
0.575726006E-01 0.553374271E-01 0.996806483
0.595672529E-01 0.339370155E-01 0.997647243
0.537188555E-01 0.403842233E-01 0.997739144
0.655617990E-01 0.334553844E-01 0.997287515
0.542261128E-01 0.523756328E-01 0.997154111
0.119595476 0.189692568E-01 0.992641471
0.946362158E-01 0.230100625E-01 0.995245961
0.965276487E-01 0.137408684E-02 0.995329355
0.920928754E-01 0.200096750E-01 0.995549353
-0.152122203E-01 -0.375533636 0.926683914
0.118404774 -0.312589347 0.942479819
0.119884739 -0.334124684 0.934873438
0.163093352 -0.283839595 0.944899806
0.383190123E-01 0.500679536E-01 0.998010447
0.420446502E-01 0.546452033E-01 0.997620243
0.287672695 -0.125229413 0.949506195
0.308752296 -0.151514664 0.938996979
0.367374801 -0.196552446 0.909067045
0.218694985 -0.177981977E-01 0.975630938
0.220757273 -0.179739130E-01 0.975163148
0.455752642E-01 -0.888544918E-01 0.995001394
-0.559079662E-01 -0.205426532 0.977074326
-0.436812995E-01 -0.221743024 0.974126263
0.219411279 -0.541607820E-01 0.974127969
0.191633217 -0.563068800E-01 0.979850114
0.475964069E-01 0.635142646E-04 0.998866647
0.459717976E-01 0.185477275E-01 0.998770532
0.233604636E-01 -0.803537894E-02 0.999694814
0.239310919 -0.487406119E-01 0.969718844
0.234175099 -0.487262692E-01 0.970972592
0.151192964 -0.186261553 0.970797261
0.377527026 -0.158756720 0.912288139
0.296924592 -0.123656602 0.946860513
0.301572786 -0.115746881 0.946391311
0.373037984 -0.171791359 0.911773213
0.401321508 -0.278913114 0.872438263
0.343260897 -0.269993131 0.899597502
0.398535033 -0.268723032 0.876902366
-0.103734512E-01 -0.301763751 0.953326298
-0.312449658E-02 -0.314808104 0.949150196
0.165123607E-01 0.326800832E-02 0.999858321
0.347065280E-01 0.232796930E-01 0.999126375
0.358405698 -0.317408662 0.877950509
0.336547913 -0.300498448 0.892432734
0.411620887 -0.247920444 0.876985575
0.412575044 -0.251673070 0.875467018
0.335591127 -0.249634865 0.908328701
0.364598966 -0.229773641 0.902370028
0.243235390E-01 -0.176849598 0.983937287
0.175954655E-01 -0.134271568 0.990788346
0.148690928 -0.384444366E-01 0.988136141
0.207941721 -0.968531081E-01 0.973334329
0.179922600 -0.184695611 0.966186001
-0.302731398E-01 -0.118068369 0.992543902
-0.229276737E-01 -0.131704093 0.991023892
0.710122362E-02 -0.529726351E-01 0.998570715
0.277851487E-01 -0.541705091E-01 0.998145050
-0.810154898E-01 -0.321844327 0.943320051
-0.663934690E-01 -0.302565062 0.950813489
-0.743018811E-01 -0.341364072 0.936989755
-0.260365580E-01 -0.343605485 0.938753092
0.267791763 -0.107836636 0.957423016
0.286103235 -0.706592619E-01 0.955589979
0.241401355 -0.756656224E-01 0.967470981
0.229861615 -0.546516220E-01 0.971687624
0.241377531 -0.605870827E-01 0.968538122
0.216129087 -0.555381580E-01 0.974783941
0.218707292 -0.516261822E-01 0.974423859
0.178312552 -0.814143471E-01 0.980599989
0.177176238 -0.761924286E-01 0.981225404
0.241202557 -0.679811880E-01 0.968090845
0.227875377 -0.735875304E-01 0.970905602
0.888761832E-01 -0.813860514E-01 0.992712111
0.813178454E-01 -0.202788561E-01 0.996481899
0.975335920E-01 -0.442202036E-01 0.994249351
0.137778089 -0.230437472E-01 0.990195023
0.159600028 -0.100241710E-01 0.987130866
0.142153799 -0.487456077E-01 0.988643598
0.191104018 -0.548847421E-01 0.980034142
0.191831509 -0.535639619E-01 0.979965088
0.120737728 -0.137994790 0.983046204
0.114840604 -0.103340094 0.987994160
0.127261808 -0.139652184 0.981988645
0.157677975 -0.700293597E-01 0.985004337
0.230408349E-01 -0.255751239 0.966468015
0.878697823E-01 -0.172831242 0.981024089
0.871853773E-01 -0.257333951 0.962381394
0.277462068E-01 -0.179387853 0.983387079
-0.816501259E-01 -0.421889130 0.902963354
-0.692136771E-01 -0.431387070 0.899508011
-0.248495479E-01 0.376815580E-01 0.998980781
-0.161524540 -0.399096289 0.902569651
-0.235814623 -0.235313382 0.942878081
-0.249622896 -0.292830476 0.923005267
-0.234909994 -0.236843326 0.942720814
-0.751091191E-01 -0.117789119 0.990194094
-0.188365481 -0.153358210 0.970051393
-0.826112753E-01 -0.109539133 0.990543566
-0.146594770 -0.276988610 0.949624812
-0.226823908 -0.315160153 0.921534043
-0.231916586 -0.291392200 0.928065344
-0.244718831 -0.318341693 0.915844561
-0.176064126 -0.314846426 0.932669905
-0.126342872 -0.689100257E-01 0.989590262
-0.231478323 -0.327705373 0.915984156
-0.355408168E-01 0.131581374E-01 0.999281599
-0.657761624E-01 0.622109155E-02 0.997815010
-0.174920506 -0.369120322 0.912772154
-0.210635189 -0.358908895 0.909294904
-0.291862845E-01 0.326688675E-02 0.999568651
-0.509349728E-01 -0.233068898E-01 0.998429976
-0.663285902E-01 -0.172909587E-01 0.997648004
-0.162993841 -0.353437986 0.921148521
-0.176974901 -0.336478112 0.924912085
-0.210590915 -0.346155327 0.914236269
-0.173424233 -0.318011633 0.932090466
-0.176050218 -0.315042749 0.932606233
-0.233211055 -0.335692817 0.912646118
-0.474813333E-01 -0.457084160E-01 0.997825768
-0.803790920E-01 -0.827129063E-01 0.993326621
-0.127884521 -0.605267347E-01 0.989940434
-0.189604212 -0.150637352 0.970236379
-0.145290683 -0.160889264 0.976219884
-0.107471083 -0.204556033 0.972937200
-0.114873064 -0.190813031 0.974881822
-0.150934342 -0.262921169 0.952938237
-0.173452164 -0.257641873 0.950544587
-0.178964319 -0.244208063 0.953065682
-0.136471097 -0.187441834 0.972749299
</DataArray>
<DataArray type="Float32" Name="elemBCid" format="ascii">
           9
           9
           9
           9
           9
           9
           9
           9
           9
           9
           9
           9
           9
           9
           9
           9
           9
           9
           9
           9
           9
           9
           9
           9
           9
           9
           9
           9
           9
           9
           9
           9
           9
           9
           9
           9
           9
           9
           9
           9
           9
           9
           9
           9
           9
           9
           9
           9
           9
           9
           9
           9
           9
           9
           9
           9
           9
           9
           9
           9
           9
           9
           9
           9
           9
           9
           9
           9
           9
           9
           9
           9
           9
           9
           9
           9
           9
           9
           9
           9
           9
           9
           9
           9
           9
           9
           9
           9
           9
           9
           9
           9
           9
           9
           9
           9
           9
           9
           9
           9
           9
           9
           9
           9
           9
           9
           9
           9
           9
           9
           9
           9
           9
           9
           9
           9
           9
           9
           9
           9
           9
           9
           9
           9
           9
           9
           9
           9
           9
           9
           9
           9
           9
           9
           9
           9
           9
           9
           9
           9
           9
           9
           9
           9
           9
           9
           9
           9
           9
           9
           9
           9
           9
           9
           9
           9
           9
           9
           9
           9
           9
           9
           9
           9
           9
           9
           9
           9
           9
           9
           9
           9
           9
           9
           9
           9
           9
           9
           9
           9
           9
           9
           9
           9
           9
           9
           9
           9
           9
           9
           9
           9
           9
           9
           9
           9
           9
           9
           9
           9
           9
           9
           9
           9
           9
           9
           9
           9
           9
</DataArray>
<DataArray type="Float32" Name="qpotential" format="ascii">
   1.0252471478491586E-002
  0.22329710525577340     
  0.30905109693499916     
  0.20943999515064099     
  0.11209081346515881     
   7.0354055577105445E-002
  0.12129315145050419     
   1.7352496017839059E-002
   1.6184792450170953E-002
   1.1470915949027738E-002
   1.1564253548116009E-002
   1.1265346006503352E-002
   2.6696930969744331E-002
   1.6980187598692451E-002
   2.1587257881688231E-002
   2.5435637352475657E-002
   9.3727897537914939E-003
   8.7996365670781757E-003
   8.8128132933800139E-003
   7.3356267072804413E-003
   7.6012909641501080E-003
   8.4411953273866077E-003
   7.9399721492599672E-003
   8.6632895877895768E-003
   9.7729330845027461E-003
   3.1712856355460999E-002
   1.0794389991779412E-002
   1.6540947051382395E-002
   2.8058984026519102E-002
   1.0254421122636900E-002
   1.6476092387144089E-002
   8.6102608255187070E-003
   9.2252164594571039E-003
   2.7917045155332321E-002
   1.0563254086446225E-002
   3.2321382502029206E-002
   1.1776861980584124E-002
   1.7224076311064415E-002
   8.7458544826004552E-003
   9.2198067918204969E-003
   1.0934068595581024E-002
   1.6501293128459354E-002
   1.1979892795794884E-002
   1.7618291969009277E-002
   8.0414611375753189E-003
   1.3242914003794173E-002
   8.6095015028514119E-003
   7.0714695640940904E-003
   8.3315037909252043E-003
   7.4376378704177097E-003
   7.1567895980400708E-003
   7.5262697490428411E-003
   7.4536868258793963E-003
   2.7821909538680578E-002
   1.0778037173504729E-002
   1.0994848932879159E-002
   1.5699460114879771E-002
   2.8271696632146674E-002
   9.6109161217406962E-003
   1.0368243940772084E-002
   1.6115611441552827E-002
   7.4266869671754041E-003
   7.3470502202919886E-003
   2.6526433706716472E-002
   9.8711856975350135E-003
   1.0297986569859106E-002
   2.7787434645785491E-002
   9.5024947869591092E-003
   2.8698422211326364E-002
   1.6205530053800533E-002
   9.9354539520657287E-003
   1.0857863992703181E-002
   8.0002172045153946E-003
   7.6530891684536608E-003
   7.4289387488357872E-003
   8.6727575687183187E-003
   8.0312535496428975E-003
   7.8940203751005616E-003
   8.4423580133959741E-003
   9.5136073895388962E-003
   2.5132720586869686E-002
   1.0404230722082070E-002
   1.1573504610134398E-002
   1.0201197887837002E-002
   1.5878556136460574E-002
   9.4861412931999140E-003
   9.6180042956269772E-003
   8.4537180154863247E-003
   9.1440539279146870E-003
   9.5689190878329444E-003
   7.7269450327314953E-003
   8.3035944698438037E-003
   7.6906184385462113E-003
   2.9377056302294709E-002
   2.8214078731517017E-002
   9.5840945065900161E-003
   8.3531368764155310E-003
   9.0682734991001119E-003
   2.5111874494088120E-002
   1.4282150675518150E-002
   7.4541812173344645E-003
   7.7135366978243860E-003
   7.5319665806184164E-003
   8.8985891906720634E-003
   7.9703426887329423E-003
   9.1274457062186405E-003
   9.7627352716357311E-003
   9.0618173101788442E-003
   2.7055850841957749E-002
   1.5694143193061009E-002
   6.9341972195553509E-003
   3.0590352782198394E-002
   1.0314126105975383E-002
   1.4897034617592085E-002
   1.3007201590507162E-002
   2.9073028723565812E-002
   1.0032600707599452E-002
   1.4116527038365485E-002
   7.8189908091882334E-003
   8.0316808787926196E-003
   9.9882364986596077E-003
   1.0451536820399544E-002
   1.6687424345399150E-002
   1.0376258971580871E-002
   2.3003601708273442E-002
   1.3121108996234815E-002
   8.4641879305639902E-003
   9.1704311966297782E-003
   7.2160360715182456E-003
   7.3485093837333442E-003
   7.7544212482277587E-003
   7.1383862758251536E-003
   6.8184970872660483E-003
   7.9206153305725405E-003
   7.5775327726236566E-003
   8.1148040773546329E-003
   7.8989680321693151E-003
   8.6994025958372981E-003
   8.1300288075972661E-003
   9.1330239160674655E-003
   8.7070705311193611E-003
   2.7478368788578771E-002
   1.4431508387306996E-002
   1.0189128764821601E-002
   1.0548275039255067E-002
   8.7683640007622885E-003
   8.0917995410625804E-003
   8.6789112226482289E-003
   7.2918417120546248E-003
   7.6387230759310696E-003
   8.0996590872958012E-003
   7.9325926137205731E-003
   7.4042517453697118E-003
   7.9611338684064080E-003
   7.6695841078004484E-003
   8.2896774193903407E-003
   8.6838496139425916E-003
   8.0258513232785156E-003
   8.1060978094297260E-003
   8.4459547057491782E-003
   7.1805754490319208E-003
   7.2847010806032595E-003
   7.0681450753541436E-003
   7.4447260369781953E-003
   7.0846178728190545E-003
   6.8642264129595574E-003
   7.0707588938477960E-003
   7.0276395400741794E-003
   2.5641195578602113E-002
   2.6686018083158725E-002
   2.5359532975723256E-002
   2.8029398129573741E-002
   2.4040655719711260E-002
   2.6431203643841779E-002
   1.3580395599345586E-002
   8.2313023634773448E-003
   2.4110378300761980E-002
   9.0023374641044103E-003
   8.5253365892116670E-003
   1.3239232872687638E-002
   1.3368930718638049E-002
   2.7283449390413272E-002
   9.6178814205719609E-003
   2.4499777447080213E-002
   2.7647172253364733E-002
   1.5739762962578709E-002
   2.8372525968673745E-002
   1.7151986171337313E-002
   3.2100234264194727E-002
   1.0711166589993534E-002
   1.0555116278709534E-002
   1.4400566643022920E-002
   1.1123128558164365E-002
   1.1265197470215158E-002
   1.6436451537996642E-002
   9.7272308995979759E-003
   1.0443128578478804E-002
   1.4948623895372949E-002
   9.3085559945601595E-003
   9.6204474013378439E-003
   1.3022836071716075E-002
   1.3637974076663954E-002
   9.4121300264194199E-003
   8.1568866169852497E-003
   8.4220606568766801E-003
   8.7455049803346861E-003
   9.3826619641607552E-003
   9.5625977005133738E-003
   9.1277742730165486E-003
</DataArray>
</CellData>
<Points>
<DataArray type="Float32" NumberOfComponents="3" format="ascii">
-0.290968000E-04 -15.5273000 138.538000
0.173557000E-04 -19.8120000 136.894000
4.26876000 -18.7182000 137.714000
0.133971000E-04 16.0895000 142.808000
-0.173944000E-04 16.0283000 142.813000
1.03654000 16.5705000 142.746000
4.14884000 18.0462000 142.534000
0.161660000E-04 16.1508000 142.805000
-0.267992000E-04 -24.1081000 134.991000
0.239950000E-05 -24.2072000 134.944000
1.48432000 -24.2453000 135.062000
4.51436000 -26.2557000 134.331000
0.182061000E-05 -24.0094000 135.038000
2.94220000 -22.6547000 135.937000
3.50760000 14.5597000 142.752000
0.219334000E-04 11.4419000 142.986000
4.20078000 11.4882000 142.839000
7.38757000 -22.6990000 136.152000
9.33481000 -27.4615000 133.867000
35.2767000 -3.61574000 135.227000
35.1596000 0.815425000 136.336000
30.3189000 -1.63395000 137.855000
31.1108000 -6.58265000 136.465000
34.6281000 -8.47301000 134.264000
25.1447000 5.12209000 139.974000
26.6569000 1.39527000 139.364000
29.7130000 3.34319000 138.695000
23.5392000 -10.2506000 138.406000
24.7820000 -14.5519000 136.719000
29.1133000 -10.6712000 136.231000
17.3450000 -19.5577000 136.759000
13.2468000 -16.2464000 138.468000
12.4108000 -20.4286000 136.963000
15.3640000 -12.4776000 139.452000
13.7128000 -7.35394000 140.989000
9.45697000 -11.7428000 140.201000
21.4547000 -17.3366000 136.760000
20.4451000 -13.2765000 138.335000
4.41841000 4.51938000 142.879000
0.394894000E-04 6.85251000 143.001000
-0.937173000E-05 2.26821000 142.791000
25.5119000 10.5247000 140.191000
20.5447000 8.37577000 141.191000
12.3175000 -24.3630000 135.258000
14.3124000 -27.6162000 133.557000
25.6097000 -18.9528000 134.925000
23.7267000 -24.5440000 133.273000
27.6440000 -21.4553000 133.212000
20.9247000 -21.8791000 135.154000
17.5812000 -15.8076000 138.069000
14.9028000 9.14521000 142.111000
18.0913000 11.8581000 141.675000
18.2474000 15.3580000 141.554000
21.9504000 17.5600000 140.901000
17.6216000 18.9193000 141.434000
15.5612000 13.3145000 141.952000
13.1063000 19.4734000 141.852000
15.6179000 16.6676000 141.792000
10.5559000 8.10577000 142.534000
6.97270000 9.03340000 142.757000
8.24603000 5.48406000 142.713000
11.7427000 11.8480000 142.349000
22.8583000 12.9270000 140.836000
11.9898000 15.8210000 142.157000
25.0449000 -2.03150000 139.525000
18.4542000 -9.17590000 139.901000
12.3661000 4.80683000 142.363000
21.9010000 -5.96988000 139.872000
26.7208000 -6.57386000 138.241000
20.4795000 -0.811295000 140.689000
8.56190000 19.1831000 142.216000
7.39030000 14.3856000 142.550000
19.2013000 -26.6391000 133.390000
16.0982000 -23.4712000 135.313000
25.9292000 15.4330000 140.187000
30.8040000 -17.5934000 133.296000
-0.408974000E-04 -6.77808000 141.305000
0.339949000E-04 -11.1836000 140.020000
4.30415000 -10.3557000 140.584000
6.10356000 -7.21165000 141.480000
8.33318000 2.04983000 142.636000
8.81995000 -17.4047000 138.321000
29.4198000 12.6069000 139.353000
9.20647000 -3.16848000 142.130000
4.14601000 -0.978541000E-01 142.636000
0.182607000E-04 -2.28813000 142.249000
3.89543000 -4.00466000 142.111000
20.3952000 3.68734000 140.964000
16.4971000 2.14958000 141.638000
3.02776000 8.68765000 142.945000
32.2544000 9.13580000 138.479000
29.3487000 7.60226000 139.119000
18.3555000 -4.90920000 140.735000
34.2026000 5.13084000 137.483000
32.3542000 1.72944000 137.656000
33.1445000 -13.1966000 133.625000
28.7352000 -15.0336000 135.066000
4.41568000 -14.2706000 139.346000
12.7670000 1.03687000 142.156000
23.7140000 1.42045000 140.099000
15.1453000 -2.07564000 141.554000
16.9516000 5.62487000 141.744000
9.63708000 -7.39969000 141.346000
-3.99511000 13.1816000 142.821000
-3.81292000 -21.0912000 135.646000
-6.86920000 -1.70778000 141.473000
-10.9108000 0.635488000 141.047000
-11.2048000 -4.09855000 139.792000
-10.5517000 -8.72138000 138.502000
-7.16971000 -5.39804000 140.471000
-3.14578000 -0.568009000 142.215000
-5.94357000 2.80800000 142.355000
-9.59461000 5.25569000 142.033000
-4.38681000 -7.89508000 140.302000
-5.67548000 -11.2328000 138.932000
-9.05536000 -13.1830000 137.351000
-4.39721000 6.18106000 142.761000
-7.25377000 9.52281000 142.629000
-6.82498000 -17.3803000 136.413000
-4.18420000 -14.5498000 138.093000
-3.13690000 9.42415000 142.901000
-2.98983000 -17.6904000 137.179000
-3.62737000 -4.13034000 141.461000
</DataArray>
</Points>
<Cells>
<DataArray type="Int32" Name="connectivity" format="ascii">
0 1 2
3 4 5
6 7 5
5 7 3
8 9 10
10 9 11
10 12 8
1 12 13
14 4 15
2 1 13
14 15 16
2 13 17
11 18 17
11 17 13
19 20 21
22 23 19
24 25 26
27 28 29
30 31 32
33 34 35
35 31 33
36 28 37
37 28 27
38 39 40
24 41 42
43 18 44
43 32 17
17 18 43
45 46 47
48 45 36
46 45 48
30 36 49
50 42 51
52 53 54
52 55 51
54 56 57
55 52 57
57 52 54
58 59 60
61 59 58
62 52 51
53 52 62
55 57 63
63 57 56
37 49 36
22 19 21
21 25 64
34 33 65
58 60 66
67 27 68
65 27 67
64 67 68
69 67 64
56 70 63
61 55 63
61 63 71
71 63 70
48 72 46
48 36 30
73 48 30
72 48 73
37 27 65
33 37 65
74 53 62
62 51 42
62 42 41
45 47 75
45 28 36
44 72 73
43 44 73
30 32 73
32 43 73
76 77 78
78 79 76
35 79 78
60 59 38
80 60 38
31 35 81
32 31 81
32 81 17
71 70 6
16 59 71
71 14 16
61 71 59
14 71 6
50 51 55
50 55 61
50 58 66
58 50 61
2 17 81
49 33 31
31 30 49
37 33 49
5 4 14
5 14 6
21 26 25
21 64 68
21 68 22
41 82 74
62 41 74
83 80 84
85 76 86
86 76 79
24 42 87
88 69 87
89 38 59
59 16 89
39 38 89
90 82 91
91 82 41
92 34 65
20 93 94
26 21 94
94 93 26
94 21 20
75 95 96
29 28 96
96 95 29
97 35 78
81 35 97
15 39 89
15 89 16
45 75 96
45 96 28
29 95 23
29 23 22
29 68 27
68 29 22
86 79 83
84 86 83
88 66 98
67 69 92
92 65 67
84 40 85
86 84 85
40 84 38
80 38 84
77 0 97
97 78 77
97 0 2
97 2 81
93 90 91
91 26 93
24 26 91
24 91 41
99 25 24
99 87 69
24 87 99
100 92 69
69 88 100
64 25 99
64 99 69
80 83 98
60 80 66
98 66 80
50 66 101
101 42 50
101 66 88
101 88 87
42 101 87
34 100 83
98 83 100
100 34 92
98 100 88
79 35 102
34 83 102
102 35 34
102 83 79
13 12 10
11 13 10
103 15 4
104 12 1
105 106 107
107 108 109
109 105 107
85 40 110
111 112 106
111 110 40
113 77 76
113 109 108
114 113 108
108 115 114
77 113 114
116 117 112
115 118 119
15 103 120
120 103 117
121 104 1
118 104 121
39 15 120
120 116 39
117 116 120
121 1 0
0 119 121
121 119 118
119 0 77
77 114 119
119 114 115
40 39 116
116 111 40
112 111 116
111 106 105
110 111 105
122 76 85
85 110 122
113 76 122
113 122 109
105 109 122
105 122 110
</DataArray>
<DataArray type="Int32" Name="offsets" format="ascii">
           3
           6
           9
          12
          15
          18
          21
          24
          27
          30
          33
          36
          39
          42
          45
          48
          51
          54
          57
          60
          63
          66
          69
          72
          75
          78
          81
          84
          87
          90
          93
          96
          99
         102
         105
         108
         111
         114
         117
         120
         123
         126
         129
         132
         135
         138
         141
         144
         147
         150
         153
         156
         159
         162
         165
         168
         171
         174
         177
         180
         183
         186
         189
         192
         195
         198
         201
         204
         207
         210
         213
         216
         219
         222
         225
         228
         231
         234
         237
         240
         243
         246
         249
         252
         255
         258
         261