<?xml version="1.0"?>
<VTKFile type="UnstructuredGrid" version="0.1" byte_order="LittleEndian" compressor="vtkZLibDataCompressor">
<UnstructuredGrid>
<Piece NumberOfPoints="       907" NumberOfCells="      1806">
<PointData Scalars="node,upotential">
<DataArray type="Float32" Name="node" format="ascii">
           1
           2
           3
           4
           5
           6
           7
           8
           9
          10
          11
          12
          13
          14
          15
          16
          17
          18
          19
          20
          21
          22
          23
          24
          25
          26
          27
          28
          29
          30
          31
          32
          33
          34
          35
          36
          37
          38
          39
          40
          41
          42
          43
          44
          45
          46
          47
          48
          49
          50
          51
          52
          53
          54
          55
          56
          57
          58
          59
          60
          61
          62
          63
          64
          65
          66
          67
          68
          69
          70
          71
          72
          73
          74
          75
          76
          77
          78
          79
          80
          81
          82
          83
          84
          85
          86
          87
          88
          89
          90
          91
          92
          93
          94
          95
          96
          97
          98
          99
         100
         101
         102
         103
         104
         105
         106
         107
         108
         109
         110
         111
         112
         113
         114
         115
         116
         117
         118
         119
         120
         121
         122
         123
         124
         125
         126
         127
         128
         129
         130
         131
         132
         133
         134
         135
         136
         137
         138
         139
         140
         141
         142
         143
         144
         145
         146
         147
         148
         149
         150
         151
         152
         153
         154
         155
         156
         157
         158
         159
         160
         161
         162
         163
         164
         165
         166
         167
         168
         169
         170
         171
         172
         173
         174
         175
         176
         177
         178
         179
         180
         181
         182
         183
         184
         185
         186
         187
         188
         189
         190
         191
         192
         193
         194
         195
         196
         197
         198
         199
         200
         201
         202
         203
         204
         205
         206
         207
         208
         209
         210
         211
         212
         213
         214
         215
         216
         217
         218
         219
         220
         221
         222
         223
         224
         225
         226
         227
         228
         229
         230
         231
         232
         233
         234
         235
         236
         237
         238
         239
         240
         241
         242
         243
         244
         245
         246
         247
         248
         249
         250
         251
         252
         253
         254
         255
         256
         257
         258
         259
         260
         261
         262
         263
         264
         265
         266
         267
         268
         269
         270
         271
         272
         273
         274
         275
         276
         277
         278
         279
         280
         281
         282
         283
         284
         285
         286
         287
         288
         289
         290
         291
         292
         293
         294
         295
         296
         297
         298
         299
         300
         301
         302
         303
         304
         305
         306
         307
         308
         309
         310
         311
         312
         313
         314
         315
         316
         317
         318
         319
         320
         321
         322
         323
         324
         325
         326
         327
         328
         329
         330
         331
         332
         333
         334
         335
         336
         337
         338
         339
         340
         341
         342
         343
         344
         345
         346
         347
         348
         349
         350
         351
         352
         353
         354
         355
         356
         357
         358
         359
         360
         361
         362
         363
         364
         365
         366
         367
         368
         369
         370
         371
         372
         373
         374
         375
         376
         377
         378
         379
         380
         381
         382
         383
         384
         385
         386
         387
         388
         389
         390
         391
         392
         393
         394
         395
         396
         397
         398
         399
         400
         401
         402
         403
         404
         405
         406
         407
         408
         409
         410
         411
         412
         413
         414
         415
         416
         417
         418
         419
         420
         421
         422
         423
         424
         425
         426
         427
         428
         429
         430
         431
         432
         433
         434
         435
         436
         437
         438
         439
         440
         441
         442
         443
         444
         445
         446
         447
         448
         449
         450
         451
         452
         453
         454
         455
         456
         457
         458
         459
         460
         461
         462
         463
         464
         465
         466
         467
         468
         469
         470
         471
         472
         473
         474
         475
         476
         477
         478
         479
         480
         481
         482
         483
         484
         485
         486
         487
         488
         489
         490
         491
         492
         493
         494
         495
         496
         497
         498
         499
         500
         501
         502
         503
         504
         505
         506
         507
         508
         509
         510
         511
         512
         513
         514
         515
         516
         517
         518
         519
         520
         521
         522
         523
         524
         525
         526
         527
         528
         529
         530
         531
         532
         533
         534
         535
         536
         537
         538
         539
         540
         541
         542
         543
         544
         545
         546
         547
         548
         549
         550
         551
         552
         553
         554
         555
         556
         557
         558
         559
         560
         561
         562
         563
         564
         565
         566
         567
         568
         569
         570
         571
         572
         573
         574
         575
         576
         577
         578
         579
         580
         581
         582
         583
         584
         585
         586
         587
         588
         589
         590
         591
         592
         593
         594
         595
         596
         597
         598
         599
         600
         601
         602
         603
         604
         605
         606
         607
         608
         609
         610
         611
         612
         613
         614
         615
         616
         617
         618
         619
         620
         621
         622
         623
         624
         625
         626
         627
         628
         629
         630
         631
         632
         633
         634
         635
         636
         637
         638
         639
         640
         641
         642
         643
         644
         645
         646
         647
         648
         649
         650
         651
         652
         653
         654
         655
         656
         657
         658
         659
         660
         661
         662
         663
         664
         665
         666
         667
         668
         669
         670
         671
         672
         673
         674
         675
         676
         677
         678
         679
         680
         681
         682
         683
         684
         685
         686
         687
         688
         689
         690
         691
         692
         693
         694
         695
         696
         697
         698
         699
         700
         701
         702
         703
         704
         705
         706
         707
         708
         709
         710
         711
         712
         713
         714
         715
         716
         717
         718
         719
         720
         721
         722
         723
         724
         725
         726
         727
         728
         729
         730
         731
         732
         733
         734
         735
         736
         737
         738
         739
         740
         741
         742
         743
         744
         745
         746
         747
         748
         749
         750
         751
         752
         753
         754
         755
         756
         757
         758
         759
         760
         761
         762
         763
         764
         765
         766
         767
         768
         769
         770
         771
         772
         773
         774
         775
         776
         777
         778
         779
         780
         781
         782
         783
         784
         785
         786
         787
         788
         789
         790
         791
         792
         793
         794
         795
         796
         797
         798
         799
         800
         801
         802
         803
         804
         805
         806
         807
         808
         809
         810
         811
         812
         813
         814
         815
         816
         817
         818
         819
         820
         821
         822
         823
         824
         825
         826
         827
         828
         829
         830
         831
         832
         833
         834
         835
         836
         837
         838
         839
         840
         841
         842
         843
         844
         845
         846
         847
         848
         849
         850
         851
         852
         853
         854
         855
         856
         857
         858
         859
         860
         861
         862
         863
         864
         865
         866
         867
         868
         869
         870
         871
         872
         873
         874
         875
         876
         877
         878
         879
         880
         881
         882
         883
         884
         885
         886
         887
         888
         889
         890
         891
         892
         893
         894
         895
         896
         897
         898
         899
         900
         901
         902
         903
         904
         905
         906
         907
</DataArray>
<DataArray type="Float32" Name="upotential" format="ascii">
   1.3146149680283634E-002
   1.6792330504497806E-002
   1.6064615122693766E-002
   1.3849884714545475E-002
   1.5608363089614651E-002
   1.9158592159112881E-002
   1.9431771650375188E-002
   1.9680312107527628E-002
   1.9583634285223184E-002
   1.9477305722487098E-002
   1.9650102069096627E-002
   1.9867132294382184E-002
   1.9610529513648528E-002
   1.8752428809275370E-002
   1.7930446386483747E-002
   1.9531207211660868E-002
   1.4503328192728062E-002
   1.5893667728623152E-002
   1.6618850607575324E-002
   1.9436809249207338E-002
   1.9355387488757800E-002
   1.5989137390253032E-002
   1.8365739252462418E-002
   1.8095656542916432E-002
   1.5917109975322048E-002
   1.8734394005924502E-002
   1.5990450128416062E-002
   1.7672043075006569E-002
   1.8974984179020098E-002
   1.5776863654304821E-002
   1.8945040889200952E-002
   1.7334706542920884E-002
   1.9034598640544763E-002
   1.2954620833764703E-002
   1.3511325069159101E-002
   1.4383373103176642E-002
   1.3470477546359723E-002
   1.5739442601681492E-002
   1.9050945798486825E-002
   1.3272748555497305E-002
   1.5059728999640379E-002
   1.5718073494145848E-002
   1.8199360336363372E-002
   1.7345042879663423E-002
   1.8926727072725101E-002
   1.8978211918230164E-002
   1.6445458480449409E-002
   1.8940717100688644E-002
   1.6515199033910997E-002
   1.4519198358440795E-002
   1.9319102905692848E-002
   1.5737063878059412E-002
   1.4934939102641797E-002
   1.6823739003257690E-002
   1.5896846135430461E-002
   1.7519803618431782E-002
   1.9247864235817216E-002
   1.7301182307594174E-002
   1.4410969760929445E-002
   1.8432687439253324E-002
   2.1292926567428930E-002
   2.1170162645731586E-002
   1.9452239806337712E-002
   2.1767926647344348E-002
   2.0496976299032424E-002
   2.1750435878672678E-002
   2.0232487515780419E-002
   2.1662698499418938E-002
   1.9180792240030317E-002
   1.7734855848386584E-002
   1.9399930592737490E-002
   2.1605154529328031E-002
   2.1647668489079133E-002
   2.0560138651654507E-002
   2.2544107757643803E-002
   2.2350802105035698E-002
   2.1334406982532923E-002
   1.8009585487935961E-002
   2.0697500103430379E-002
   2.0103270935515612E-002
   2.1896720575107071E-002
   1.9452053121001209E-002
   1.8609584502817054E-002
   2.1269543909734817E-002
   1.8536212302494994E-002
   1.8387984060516952E-002
   1.7177944680455821E-002
   1.6807266997689144E-002
   1.6187105525021991E-002
   1.9976675825817247E-002
   2.1088127036849300E-002
   1.8321317302021002E-002
   1.7882476379818237E-002
   2.0304239533063845E-002
   2.1136828856845737E-002
   1.9702105720916085E-002
   1.6400353674319613E-002
   1.8893617836854292E-002
   1.8665260058532484E-002
   1.9427561964231479E-002
   1.8601015305315858E-002
   1.4539847342001108E-002
   1.5431106128040807E-002
   1.8229578610469876E-002
   1.4858885966620741E-002
   1.7496650268918557E-002
   2.1611007802591876E-002
   2.0013138064618474E-002
   2.1545972680195712E-002
   1.3002059869007643E-002
   1.4061403889594776E-002
   1.3677553778734579E-002
   1.3157886435487747E-002
   1.7176249175503547E-002
   1.7314647043217449E-002
   1.7405620295493522E-002
   1.2702440075211884E-002
   1.4740288401410952E-002
   1.3453180096658605E-002
   1.6322760082259882E-002
   1.2486767625652513E-002
   1.2383694773790673E-002
   1.3842365311806180E-002
   1.3633694321897063E-002
   1.8091471954112062E-002
   1.6245778294312230E-002
   1.9628470350939693E-002
   1.2220184352084754E-002
   2.0447045194780394E-002
   2.1587054176588009E-002
   1.7591031904368098E-002
   1.6168940959879946E-002
   1.6359722844085808E-002
   1.6535174244471793E-002
   1.6873524397925738E-002
   1.7079773911653849E-002
   1.6776724533525279E-002
   1.4816872113162382E-002
   1.5871363591410861E-002
   1.3692941423271848E-002
   1.2215423858710333E-002
   1.7875740506909536E-002
   1.8223367590872820E-002
   1.7606374479643264E-002
   1.8627829690444787E-002
   2.0532245833487641E-002
   1.9204628129170603E-002
   1.4802341973968078E-002
   1.7991778594239088E-002
   1.7813813746146059E-002
   1.4470920698502605E-002
   1.3982184127188987E-002
   1.4523840362820069E-002
   1.4991478051681962E-002
   1.5151065941816885E-002
   1.5530052089986755E-002
   1.5800968547313485E-002
   1.5836132389345767E-002
   1.4823250150669990E-002
   1.8452514294677438E-002
   1.8566275306790905E-002
   2.1674504179341227E-002
   2.2112877556579865E-002
   1.8077648295415343E-002
   1.3159611016777595E-002
   1.7525838665666819E-002
   1.6239301373428099E-002
   2.0832849090638549E-002
   1.1801212668353026E-002
   1.2429629753500657E-002
   1.2965150295364464E-002
   1.4866085874322579E-002
   1.3818649231903376E-002
   1.9009716885574113E-002
   1.8800410501831052E-002
   1.6898825159180023E-002
   2.2494743293055810E-002
   1.7763751640159614E-002
   1.5971533139205123E-002
   1.6499596577201504E-002
   1.5186303141030189E-002
   1.5946152459326478E-002
   1.5244064297775506E-002
   2.0074182805029948E-002
   1.1655673994976409E-002
   1.4854580514210961E-002
   1.7443271468839085E-002
   1.5889790696840517E-002
   1.8417295985253129E-002
   1.7463781474954733E-002
   1.7165661518462782E-002
   2.0215667644772232E-002
   1.8735926658517876E-002
   1.7540122478168135E-002
   1.8232192550443487E-002
   1.5728617390507703E-002
   1.5074458606473082E-002
   1.9765271657792537E-002
   1.7553443320024516E-002
   1.7147596722684004E-002
   1.9345945352832943E-002
   1.5277212423450284E-002
   1.8155335718227587E-002
   1.7336517866378440E-002
   1.7448505201235753E-002
   1.7356607485206236E-002
   1.9842360997795693E-002
   2.1472586931531267E-002
   1.8013443801759125E-002
   1.7305212522057287E-002
   1.8824171729643777E-002
   1.8772108650984047E-002
   1.4034771933791174E-002
   1.7246466347382580E-002
   1.3400928108901266E-002
   2.0580038215841180E-002
   1.6316638405452080E-002
   1.2613135444303199E-002
   2.1125906891677967E-002
   2.0741636930499709E-002
   2.1337007449504331E-002
   1.8796825624581820E-002
   2.1489196731737811E-002
   2.1474126612195853E-002
   2.1505887956915767E-002
   2.1533023601481752E-002
   2.1577350833739871E-002
   1.9711114607353447E-002
   1.7342292147942792E-002
   1.6066062683636272E-002
   1.9026696289150581E-002
   1.9178763794157158E-002
   1.6001053643956098E-002
   1.3748473913353642E-002
   1.5739042662128319E-002
   1.6903301983465839E-002
   1.9183512606679994E-002
   1.6877488598473548E-002
   1.7998183237681407E-002
   2.3481200270909598E-002
   2.3470765379143138E-002
   2.5451034873392460E-002
   2.0039372275133999E-002
   2.0481116602159580E-002
   2.0015068115448634E-002
   3.1082061392451513E-002
   3.0637696918242519E-002
   3.0637037916307307E-002
   3.4653753945237363E-002
   3.2936534826424967E-002
   3.4743362974381721E-002
   3.4768189041405856E-002
   3.3034539657293999E-002
   3.4046706185187993E-002
   3.1642162497357407E-002
   2.5937669713853553E-002
   2.9347301221734973E-002
   2.7448706639456408E-002
   2.9692702590727080E-002
   3.1063777122014986E-002
   3.1829465779214285E-002
   2.5417682493006508E-002
   2.5899096896653050E-002
   3.1136703589841053E-002
   3.2171640922522102E-002
   3.1540077536096951E-002
   2.2698537541468593E-002
   2.4529358403272233E-002
   2.3059830477828024E-002
   2.3796664015592099E-002
   3.4476922162137900E-002
   3.3021131872482214E-002
   3.4235525570587941E-002
   2.1280383009176802E-002
   3.2920868418636409E-002
   3.4163052901007109E-002
   3.4493663632558326E-002
   3.6590508105234010E-002
   3.6666638575681740E-002
   2.6163616348355290E-002
   2.3628648823290268E-002
   2.4093028498415367E-002
   3.2676980017745841E-002
   3.1408086381709936E-002
   3.3696935469967257E-002
   3.0782106237719580E-002
   2.9112019473989077E-002
   2.7164213414144212E-002
   2.9238123945716302E-002
   2.9079763785378548E-002
   3.0093940099534026E-002
   2.8131809108526300E-002
   2.7657768058422537E-002
   3.3955026558156347E-002
   2.8161642560125277E-002
   2.8855841161110521E-002
   3.2860352775881521E-002
   3.3846074732023855E-002
   3.3996162104017506E-002
   1.7428231632527224E-002
   1.9943034514538705E-002
   2.2224336620155827E-002
   2.7123444209537301E-002
   3.0171143287607949E-002
   2.8775792161105755E-002
   3.4395245109321029E-002
   3.2951951719649396E-002
   3.3619013516230610E-002
   2.6894079002482314E-002
   2.7318691733978197E-002
   3.4530496088201912E-002
   3.6617540450001665E-002
   3.6515898574897204E-002
   3.2895135794924257E-002
   3.1953705092974155E-002
   2.6115832448243885E-002
   2.5733429080344199E-002
   2.5715807362123283E-002
   2.3352724650812534E-002
   2.4124788882879097E-002
   2.4534774422111424E-002
   3.5208325551117942E-002
   3.1536273970704888E-002
   3.1821752762642583E-002
   3.4033326498796049E-002
   3.3086653791130405E-002
   3.2826056633646024E-002
   3.2528587532336936E-002
   3.4378399311503209E-002
   3.2474477860824393E-002
   3.3590720770517161E-002
   3.1975295601960399E-002
   3.2736068876867509E-002
   3.3015753971070212E-002
   3.2549791527965569E-002
   3.6664312985220909E-002
   3.6309116819924950E-002
   3.3928492241271278E-002
   3.5614426317448385E-002
   3.3462060729680818E-002
   3.5772184237870791E-002
   3.0032994943030654E-002
   3.2479809081903378E-002
   3.4827048859019882E-002
   2.8778343271646169E-002
   2.9371949982932317E-002
   3.0412293471188030E-002
   3.2567043257417716E-002
   3.4584980645502569E-002
   1.9902165682050763E-002
   3.3422030056757972E-002
   3.0749844678652272E-002
   3.1584636635363574E-002
   3.0451551334024090E-002
   3.0156683319727574E-002
   2.9834358802833506E-002
   2.5075559648376405E-002
   2.7606831525908933E-002
   2.0719114572344745E-002
   3.1820744254563584E-002
   3.0628413366919759E-002
   3.1758365726800672E-002
   2.7017875510462266E-002
   3.2612223517587503E-002
   3.5027130072293654E-002
   2.4035632944749169E-002
   2.2503683538637933E-002
   2.2283711538746639E-002
   2.1184473321219175E-002
   2.1124531004390084E-002
   3.5918866320089296E-002
   2.3554023817429992E-002
   2.5842244477805032E-002
   2.5781580060594320E-002
   3.4271622972324743E-002
   3.2702449145956027E-002
   3.4154260079634471E-002
   2.2845634939377062E-002
   2.6422250157781105E-002
   2.7195990889570251E-002
   2.4417090412842575E-002
   3.6407931410941841E-002
   2.1118252777156277E-002
   3.4024256653771359E-002
   3.1693508403421812E-002
   3.2167053302137469E-002
   3.5768174723495610E-002
   3.4727606481463918E-002
   3.5660973518956668E-002
   3.2487017123100266E-002
   3.2731869450736750E-002
   3.2980875117437067E-002
   3.4953186864525705E-002
   3.5961717671919441E-002
   3.0189647791609053E-002
   3.1688108812773695E-002
   2.8753282529320454E-002
   2.9953788450010062E-002
   3.2850799313630864E-002
   3.4374279389644019E-002
   3.2659144655943939E-002
   3.3294185770016888E-002
   3.3542407323173089E-002
   2.7505607471099661E-002
   2.6647577207067712E-002
   3.2639650548032889E-002
   3.2990703784674530E-002
   3.0766838453728823E-002
   2.7895339996570026E-002
   2.5407238849412869E-002
   2.9961621705506040E-002
   3.3802049470101653E-002
   3.5377174185670462E-002
   3.0593739734584891E-002
   3.2260858845418301E-002
   3.1008781809032986E-002
   2.4489089340564766E-002
   3.0305747712604112E-002
   2.8897955104753559E-002
   2.9359046292089127E-002
   3.1940823836119153E-002
   3.3033861649267041E-002
   3.2773853844497887E-002
   2.9265195172324156E-002
   3.3676754724114168E-002
   3.2169384326757804E-002
   2.8344505077416194E-002
   2.9382201956993356E-002
   2.9154083413019203E-002
   2.9581602741583408E-002
   3.2813992334897311E-002
   2.3660745583576472E-002
   3.5913389090073793E-002
   3.3724381141392888E-002
   3.5491819441115680E-002
   3.3120361550882979E-002
   1.7750293573848108E-002
   3.1710820936995766E-002
   3.1737307372874377E-002
   3.1731113392005572E-002
   3.1224442306983659E-002
   2.9256995277503799E-002
   2.6413293382984610E-002
   2.6881322755856963E-002
   2.7862211134440196E-002
   2.7546263690119852E-002
   2.7288383104179012E-002
   2.7395174442142033E-002
   2.8393852721310259E-002
   3.6423727288363551E-002
   3.6449172054252021E-002
   3.4872946064486696E-002
   2.8171952224545042E-002
   2.5374586955295257E-002
   2.4420880159078492E-002
   2.5481295056337217E-002
   2.7344061936401431E-002
   3.1244578481832843E-002
   3.0046172549142956E-002
   3.0908983443534706E-002
   3.2312507982911201E-002
   3.0493827504364558E-002
   2.5864594311776869E-002
   2.8954909227084390E-002
   3.0401402295447091E-002
   2.9970959877140744E-002
   3.6034122885853309E-002
   3.6393186869263655E-002
   3.6360919656320989E-002
   3.1803845251314029E-002
   2.6203893795811426E-002
   2.8325970348860099E-002
   3.2206412585208545E-002
   3.1981029686868508E-002
   2.9166158631847041E-002
   2.5792208787186917E-002
   2.7455527910079085E-002
   2.7693447629868067E-002
   3.5036753732440300E-002
   3.6099651580583925E-002
   2.2400713504160015E-002
   2.2463977566662033E-002
   2.0946835626709733E-002
   3.4610929642312376E-002
   3.3846822484361085E-002
   3.2569602514911727E-002
   3.1523988309608252E-002
   3.3526853130762965E-002
   3.1261108164220466E-002
   3.2240389584227994E-002
   3.1558204769642544E-002
   3.6177636636804983E-002
   3.5322995248824901E-002
   3.4719747584146567E-002
   3.1379945937790685E-002
   3.3517070385315796E-002
   3.1120061093127628E-002
   3.0665249226699220E-002
   2.8947162434345534E-002
   2.9953976265511946E-002
   3.6352529379720840E-002
   3.3001821219367782E-002
   3.1505550197082066E-002
   2.8364022333758402E-002
   1.9012991371050617E-002
   3.0315285672502891E-002
   1.7657717392104744E-002
   3.3267209930552474E-002
   1.8396944227758706E-002
   2.0164412207591215E-002
   3.5073850969160533E-002
   2.7920231003844456E-002
   2.1205731930228337E-002
   2.1302211055240501E-002
   2.2002523091454836E-002
   2.0669472497156869E-002
   2.0468586564121032E-002
   1.8383855828424871E-002
   3.3980813083946876E-002
   3.5775057151265520E-002
   3.6262711262621018E-002
   1.8147681044754553E-002
   1.9255988100145512E-002
   3.7314734542037348E-002
   2.2762712217852601E-002
   2.1423807421010407E-002
   2.3867358117225446E-002
   2.3209128643074676E-002
   2.0191997577563275E-002
   2.0105233497166607E-002
   3.4376225402772687E-002
   2.1489767790722016E-002
   2.0108969540472192E-002
   2.3772079930883202E-002
   2.0798926475318374E-002
   1.9930932125578966E-002
   2.0192396261516143E-002
   2.3583956432999303E-002
   2.4926066659550841E-002
   3.5390362399421164E-002
   3.5563581435812383E-002
   2.7806270293824837E-002
   2.4218323452742441E-002
   2.5382621233209980E-002
   2.6130500269293259E-002
   2.6766280169349278E-002
   2.8144376955122438E-002
   4.0394372698731237E-002
   3.9135253857692287E-002
   4.0489472705869257E-002
   3.8118566466029125E-002
   3.9098660458112257E-002
   3.8083466989099278E-002
   3.6579307215262695E-002
   2.1473617420926988E-002
   3.6478600991809593E-002
   3.6125083399030013E-002
   3.6706896028274691E-002
   4.5291177833604611E-002
   4.3855704934781019E-002
   4.5421001076061090E-002
   2.2629056310158328E-002
   4.1106518824036105E-002
   4.2263811681127125E-002
   3.3832510205738353E-002
   2.4015901030297326E-002
   3.6633902634507672E-002
   2.2992731700833217E-002
   3.7059865477120223E-002
   2.3735905746576486E-002
   2.5099435824297526E-002
   3.5885936167644801E-002
   3.9148363086780796E-002
   3.9993253485153507E-002
   3.8353265091474950E-002
   3.8047386429215811E-002
   2.2205686225347521E-002
   3.6620658285545629E-002
   3.2659867283653304E-002
   3.2213060207893725E-002
   3.0915348555474783E-002
   2.2466906156780264E-002
   3.9419980036378220E-002
   3.7258297719365320E-002
   2.3899108452349181E-002
   3.3697539493648412E-002
   2.2466167780149666E-002
   3.3040937498212047E-002
   3.3807869905866428E-002
   2.3814848124959091E-002
   3.6373694863535165E-002
   3.5607024508756462E-002
   2.7355311728363849E-002
   2.6861448103539489E-002
   2.3793995454552172E-002
   4.2166942202184712E-002
   4.1780231630832755E-002
   4.0534535498544119E-002
   3.3798669001587421E-002
   3.1386105741528232E-002
   3.2897475163747247E-002
   3.4200104069048796E-002
   4.1787453740568407E-002
   3.9957135424940060E-002
   3.9245951091955798E-002
   4.1318998442895452E-002
   3.9319509635644227E-002
   4.0715095441080769E-002
   2.4005762906205513E-002
   3.6052144353221481E-002
   3.4861441361933150E-002
   2.3682119506403629E-002
   2.8256916922175641E-002
   2.9879172926174771E-002
   3.8085839927709760E-002
   2.4747321950291588E-002
   2.5068095910241943E-002
   2.4617939947285700E-002
   2.6247534764502145E-002
   3.7752149866836338E-002
   2.2812479445567850E-002
   3.1954850578030117E-002
   2.0814765211890310E-002
   2.3810011319924745E-002
   2.2427736917286761E-002
   2.4709473923091408E-002
   4.1803300010934026E-002
   4.0753264955033612E-002
   2.4668350694792979E-002
   2.5780164372787118E-002
   2.7186700333969124E-002
   3.7412790834053383E-002
   3.6162183342440299E-002
   3.5238698741317798E-002
   2.8987772772894972E-002
   2.7350692284520160E-002
   2.5347883507210952E-002
   3.4698007718693233E-002
   3.6837272469376819E-002
   3.1782391629870864E-002
   2.1194281987880263E-002
   2.2281823347677070E-002
   2.7779351686144396E-002
   2.5182672821773638E-002
   2.6031715943598301E-002
   3.0102166399908464E-002
   2.6273641030118040E-002
   2.8364516111258856E-002
   2.9022063481528665E-002
   2.6902935959230847E-002
   2.6019650896319149E-002
   2.4488206829051722E-002
   2.5831495439110869E-002
   4.1866633792516497E-002
   4.3052920019434504E-002
   4.4208348038812538E-002
   2.6346673193694391E-002
   3.1757919027712682E-002
   3.2366769606207310E-002
   3.4722821184328963E-002