<?xml version="1.0"?>
<VTKFile type="UnstructuredGrid" version="0.1" byte_order="LittleEndian" compressor="vtkZLibDataCompressor">
<UnstructuredGrid>
<Piece NumberOfPoints="       129" NumberOfCells="       220">
<PointData Scalars="node,upotential">
<DataArray type="Float32" Name="node" format="ascii">
           1
           2
           3
           4
           5
           6
           7
           8
           9
          10
          11
          12
          13
          14
          15
          16
          17
          18
          19
          20
          21
          22
          23
          24
          25
          26
          27
          28
          29
          30
          31
          32
          33
          34
          35
          36
          37
          38
          39
          40
          41
          42
          43
          44
          45
          46
          47
          48
          49
          50
          51
          52
          53
          54
          55
          56
          57
          58
          59
          60
          61
          62
          63
          64
          65
          66
          67
          68
          69
          70
          71
          72
          73
          74
          75
          76
          77
          78
          79
          80
          81
          82
          83
          84
          85
          86
          87
          88
          89
          90
          91
          92
          93
          94
          95
          96
          97
          98
          99
         100
         101
         102
         103
         104
         105
         106
         107
         108
         109
         110
         111
         112
         113
         114
         115
         116
         117
         118
         119
         120
         121
         122
         123
         124
         125
         126
         127
         128
         129
</DataArray>
<DataArray type="Float32" Name="upotential" format="ascii">
   1.0000000000000000     
   1.0000000000000000     
   1.0000000000000000     
   1.0000000000000000     
   1.0000000000000000     
   1.0000000000000000     
   1.0000000000000000     
   1.0000000000000000     
   1.0000000000000000     
   1.0000000000000000     
   1.0000000000000000     
   1.0000000000000000     
   1.0000000000000000     
   1.0000000000000000     
   1.0000000000000000     
   1.0000000000000000     
   1.0000000000000000     
   1.0000000000000000     
   1.0000000000000000     
   1.0000000000000000     
   1.0000000000000000     
   1.0000000000000000     
   1.0000000000000000     
   1.0000000000000000     
   1.0000000000000000     
   1.0000000000000000     
   1.0000000000000000     
   1.0000000000000000     
   1.0000000000000000     
   1.0000000000000000     
   1.0000000000000000     
   1.0000000000000000     
   1.0000000000000000     
   1.0000000000000000     
   1.0000000000000000     
   1.0000000000000000     
   1.0000000000000000     
   1.0000000000000000     
   1.0000000000000000     
   1.0000000000000000     
   1.0000000000000000     
   1.0000000000000000     
   1.0000000000000000     
   1.0000000000000000     
   1.0000000000000000     
   1.0000000000000000     
   1.0000000000000000     
   1.0000000000000000     
   1.0000000000000000     
   1.0000000000000000     
   1.0000000000000000     
   1.0000000000000000     
   1.0000000000000000     
   1.0000000000000000     
   1.0000000000000000     
   1.0000000000000000     
   1.0000000000000000     
   1.0000000000000000     
   1.0000000000000000     
   1.0000000000000000     
   1.0000000000000000     
   1.0000000000000000     
   1.0000000000000000     
   1.0000000000000000     
   1.0000000000000000     
   1.0000000000000000     
   1.0000000000000000     
   1.0000000000000000     
   1.0000000000000000     
   1.0000000000000000     
   1.0000000000000000     
   1.0000000000000000     
   1.0000000000000000     
   1.0000000000000000     
   1.0000000000000000     
   1.0000000000000000     
   1.0000000000000000     
   1.0000000000000000     
   1.0000000000000000     
   1.0000000000000000     
   1.0000000000000000     
   1.0000000000000000     
   1.0000000000000000     
   1.0000000000000000     
   1.0000000000000000     
   1.0000000000000000     
   1.0000000000000000     
   1.0000000000000000     
   1.0000000000000000     
   1.0000000000000000     
   1.0000000000000000     
   1.0000000000000000     
   1.0000000000000000     
   1.0000000000000000     
   1.0000000000000000     
   1.0000000000000000     
   1.0000000000000000     
   1.0000000000000000     
   1.0000000000000000     
   1.0000000000000000     
   1.0000000000000000     
   1.0000000000000000     
   1.0000000000000000     
   1.0000000000000000     
   1.0000000000000000     
   1.0000000000000000     
   1.0000000000000000     
   1.0000000000000000     
   1.0000000000000000     
   1.0000000000000000     
   1.0000000000000000     
   1.0000000000000000     
   1.0000000000000000     
   1.0000000000000000     
   1.0000000000000000     
   1.0000000000000000     
   1.0000000000000000     
   1.0000000000000000     
   1.0000000000000000     
   1.0000000000000000     
   1.0000000000000000     
   1.0000000000000000     
   1.0000000000000000     
   1.0000000000000000     
   1.0000000000000000     
   1.0000000000000000     
   1.0000000000000000     
   1.0000000000000000     
   1.0000000000000000     
</DataArray>
</PointData>
<CellData Vectors="normale" Scalars="elemBCid,qpotential">
<DataArray type="Float32" Name="normale" NumberOfComponents="3" format="ascii">
-0.135865751 -0.646369061 0.750831229
-0.485859714E-01 -0.909621679 0.412586723
-0.130288554 -0.824712564 0.550339967
-0.155278489 -0.721344270 0.674945209
-0.997573661E-01 -0.872686658 0.477981657
-0.105742049 -0.872444170 0.477137075
-0.156885869 -0.668131469 0.727315037
-0.174615255 -0.664761337 0.726362084
-0.151223993 -0.802050046 0.577794970
-0.165993177 -0.732417349 0.660311360
-0.149837074 -0.679268375 0.718431156
-0.168113621 -0.698678793 0.695403304
-0.203878880 -0.696728406 0.687752085
-0.206477430 -0.691069087 0.692669176
-0.939477914E-01 -0.867205048 0.489008401
-0.134193638 -0.829632343 0.541943025
-0.151515284 -0.829189667 0.538040533
-0.151030960 -0.828433191 0.539340428
-0.155209133 -0.775856897 0.611519583
-0.153835123 -0.754007134 0.638598463
-0.172986943 -0.755535701 0.631855460
-0.160981931 -0.749282443 0.642386674
-0.160810732 -0.779325550 0.605633218
-0.158099310 -0.779621783 0.605965744
-0.163079103 -0.767687300 0.619726888
-0.212758114 -0.754065321 0.621385128
-0.224109158 -0.758618258 0.611778901
-0.152718488 -0.794737744 0.587425724
-0.161444861 -0.783145015 0.600515979
-0.147984567 -0.793018348 0.590950478
-0.247652168 -0.729431337 0.637650632
-0.224472397 -0.747873295 0.624738087
-0.209223115 -0.778814613 0.591331960
-0.170769441 -0.782850515 0.598316697
-0.173038959 -0.785704681 0.593907125
-0.192381691 -0.786482636 0.586885294
-0.245759478 -0.716425963 0.652944192
-0.198070302 -0.748661454 0.632672256
-0.207867209 -0.733558625 0.647057159
-0.249286847 -0.716823368 0.651168432
-0.185480590 -0.768682395 0.612147307
-0.199213711 -0.749753829 0.631017507
-0.183237001 -0.766709954 0.615288589
-0.164844905 -0.767400641 0.619614730
-0.166846805 -0.769346929 0.616658290
-0.246591882 -0.699941250 0.670279561
-0.211981628 -0.697539648 0.684472226
-0.195418770 -0.724632845 0.660846990
-0.188009191 -0.805563543 0.561889600
-0.163935864 -0.813748814 0.557618059
-0.153738031 -0.802041687 0.577142747
-0.945581503E-01 -0.683946826 0.723377837
0.101430542 -0.866565228 0.488647675
-0.121193574 -0.714746911 0.688802563
-0.102283502 -0.603131119 0.791056849
-0.104049541 -0.612962809 0.783230673
0.204886814 -0.904332728 0.374437860
0.226580777 -0.825431981 0.517033071
0.200933896 -0.909989928 0.362689813
0.144769221 -0.901103547 0.408722730
0.420370451E-01 -0.890305987 0.453418279
0.100860087 -0.907801695 0.407091299
-0.824768426E-01 -0.671216115 0.736659010
0.127068978 -0.912575482 0.388663690
0.536190507E-01 -0.920071741 0.388063125
0.849730934E-01 -0.921544304 0.378861016
0.179599278 -0.928959046 0.323696139
0.167936360 -0.925313886 0.339987634
0.109820231 -0.937043050 0.331496365
0.105443772 -0.936556345 0.334281055
-0.506697752E-02 -0.637992425 0.770025968
-0.157510094E-01 -0.646839695 0.762463321
0.338387091 -0.700729530 0.628070300
0.207540713 -0.738334968 0.641707354
0.324165878 -0.672109619 0.665721521
0.307660705 -0.662357875 0.683100970
0.225555023 -0.700378979 0.677195848
0.213103786E-01 -0.758373590 0.651471692
0.363666953E-02 -0.835075017 0.550124069
0.790104645E-01 -0.713144185 0.696550585
0.712803228E-01 -0.923485033 0.376954254
0.798140256E-01 -0.921669266 0.379678134
0.880404987E-01 -0.760292088 0.643587454
0.431498088E-01 -0.850348127 0.524448431
0.371091356E-01 -0.887640112 0.459040243
0.776322292E-01 -0.712144579 0.697727264
0.732467591E-01 -0.738370913 0.670405330
0.165741478 -0.894317905 0.415602270
0.171949786 -0.698437683 0.694707186
0.733382544E-01 -0.673218099 0.735798132
0.151077857 -0.924203579 0.350746670
0.229223650 -0.650820989 0.723801464
0.823385308E-01 -0.947085514 0.310240867
0.796839304E-01 -0.937077604 0.339905921
0.710018374E-01 -0.944641494 0.320329809
0.123881684 -0.691764235 0.711418001
-0.869868425E-01 -0.727433373 0.680642327
-0.582551997E-01 -0.746558497 0.662764470
0.184283279 -0.662446744 0.726088139
0.110817720 -0.914488639 0.389140029
0.146410895 -0.920994836 0.361015737
0.150901597 -0.924206760 0.350814157
0.733836730E-02 -0.831780520 0.555056136
0.527032853E-01 -0.872098588 0.486483726
-0.114516556E-01 -0.843323500 0.537284220
0.421571093E-01 -0.680679607 0.731367247
0.389425138E-01 -0.715501165 0.697525314
0.747677112E-02 -0.740928468 0.671542331
0.506065025E-01 -0.885343388 0.462175365
0.466693045E-01 -0.888505575 0.456486384
0.905513682E-03 -0.857017246 0.515286929
0.691953687E-01 -0.639523734 0.765650961
0.605727758E-01 -0.645852096 0.761055851
0.107919513 -0.684791769 0.720703554
0.941034562E-01 -0.688294554 0.719301846
0.278096342E-01 -0.703666946 0.709985530
-0.104379614E-01 -0.662354211 0.749118113
-0.379791881E-01 -0.679048915 0.733109918
0.108570364 -0.886451459 0.449906976
0.124830754 -0.900528011 0.416493198
0.152534244 -0.737601177 0.657782493
0.183156412 -0.877105006 0.444005110
0.869193625E-01 -0.742365367 0.664333265
-0.286602163E-01 -0.734600986 0.677893784
0.169902765E-01 -0.882592264 0.469832126
0.190924824E-01 -0.852570873 0.522262754
0.732801627E-01 -0.673297163 0.735731573
0.140856394 -0.854769410 0.499528510
0.156480733 -0.852499810 0.498756307
0.169388698 -0.652475606 0.738635940
0.133046211 -0.669076283 0.731187823
0.137256698 -0.661921761 0.736899030
0.125158474 -0.936138514 0.328603165
0.125070211 -0.922984328 0.363946937
0.111598839 -0.931277712 0.346796081
0.117782880 -0.936144599 0.331301196
0.147156689 -0.726373336 0.671361814
0.109861891 -0.707256366 0.698368669
0.124208797 -0.693006609 0.710150699
0.116919683 -0.725602630 0.678108111
0.206435763 -0.891332644 0.403621597
0.210263036 -0.897091990 0.388607021
0.171456988 -0.902821515 0.394354933
0.261494397 -0.675065039 0.689860764
0.266023977 -0.657948756 0.704510240
0.120259189 -0.650479559 0.749942712
0.106652350 -0.655540843 0.747590449
0.114601551 -0.673698586 0.730066230
0.102349994 -0.666044325 0.738856843
0.974005449E-01 -0.944553327 0.313579569
0.927086115E-01 -0.944316711 0.315707242
0.957064040E-01 -0.931496616 0.350933525
0.863565844E-01 -0.936960856 0.338595473
0.131209142E-01 -0.756192914 0.654217179
0.102038432E-01 -0.833453945 0.552494708
-0.707906015E-01 -0.707513588 0.703145229
-0.419267656E-01 -0.710802983 0.702140489
-0.272097123E-01 -0.700818322 0.712820672
0.850370347E-01 -0.885893911 0.456027062
0.674996115E-01 -0.894493016 0.441957065
0.843481902E-01 -0.916913994 0.390069365
0.138731204 -0.674440549 0.725178323
0.171749927 -0.697951023 0.695245519
0.185206393 -0.679564739 0.709852349
0.178063696 -0.670584955 0.720145221
0.221113852 -0.750082879 0.623285118
0.267658834 -0.739205278 0.618008337
0.319931617 -0.688756759 0.650582729
0.283993885 -0.708826882 0.645687173
0.230685463 -0.705250074 0.670377916
0.255482436 -0.702057160 0.664713825
0.309354580 -0.665644807 0.679129395
0.267967278 -0.659792768 0.702044900
-0.557716858E-01 -0.784151457 0.618058259
-0.165490157E-01 -0.794157256 0.607486940
-0.265579566E-01 -0.801713964 0.597117572
-0.192112417E-01 -0.823075714 0.567606640
-0.404795629E-01 -0.800295055 0.598238439
0.342145286 -0.755262224 0.559030925
0.289530653 -0.747830551 0.597429049
0.318964889 -0.734988571 0.598375468
0.132197903 -0.758738682 0.637839578
0.969875110E-01 -0.764092349 0.637774494
0.153481536 -0.789859246 0.593772507
0.209494927 -0.771562094 0.600669469
0.180531803 -0.833003208 0.522985586
0.164286384 -0.791058522 0.589267680
0.281358850 -0.848289734 0.448599739
0.235128802 -0.867878141 0.437609391
0.106536354 -0.842177985 0.528570002
-0.300697716E-01 -0.781698564 0.622931107
-0.236811035E-01 -0.768988390 0.638823968
-0.540257181E-01 -0.782629963 0.620138342
0.465593776E-01 -0.803928226 0.592901031
0.155710983E-01 -0.810456834 0.585591378
0.314229037 -0.811371678 0.492885496
0.288194988 -0.826701547 0.483226863
0.277922743 -0.826339915 0.489817613
-0.679947000E-01 -0.761324630 0.644795726
-0.585097777E-01 -0.755760568 0.652228924
-0.430237890E-01 -0.803426963 0.593846839
-0.138828860E-01 -0.821206920 0.570461620
0.241190403 -0.842474827 0.481729547
0.227657434 -0.864822833 0.447496994
0.775763493E-01 -0.850544718 0.520149586
0.595246192E-01 -0.845830923 0.530119675
0.248620385 -0.795227643 0.552992677
0.217044332 -0.827231755 0.518246449
0.309201358 -0.783100230 0.539581829
0.282905545 -0.783795040 0.552837939
0.273090599 -0.790496405 0.548212512
0.599033644E-01 -0.808168511 0.585896958
0.840377723E-01 -0.801603333 0.591920391
0.110029083 -0.809555679 0.576639578
0.463545766E-01 -0.776294763 0.628663419
0.253660077E-01 -0.770944063 0.636397531
-0.625006035E-02 -0.794331491 0.607452401
-0.699707164E-01 -0.641769586 0.763698826
-0.110860071 -0.648396700 0.753187735
-0.916874334E-01 -0.654956216 0.750083841
</DataArray>
<DataArray type="Float32" Name="elemBCid" format="ascii">
           4
           4
           4
           4
           4
           4
           4
           4
           4
           4
           4
           4
           4
           4
           4
           4
           4
           4
           4
           4
           4
           4
           4
           4
           4
           4
           4
           4
           4
           4
           4
           4
           4
           4
           4
           4
           4
           4
           4
           4
           4
           4
           4
           4
           4
           4
           4
           4
           4
           4
           4
           4
           4
           4
           4
           4
           4
           4
           4
           4
           4
           4
           4
           4
           4
           4
           4
           4
           4
           4
           4
           4
           4
           4
           4
           4
           4
           4
           4
           4
           4
           4
           4
           4
           4
           4
           4
           4
           4
           4
           4
           4
           4
           4
           4
           4
           4
           4
           4
           4
           4
           4
           4
           4
           4
           4
           4
           4
           4
           4
           4
           4
           4
           4
           4
           4
           4
           4
           4
           4
           4
           4
           4
           4
           4
           4
           4
           4
           4
           4
           4
           4
           4
           4
           4
           4
           4
           4
           4
           4
           4
           4
           4
           4
           4
           4
           4
           4
           4
           4
           4
           4
           4
           4
           4
           4
           4
           4
           4
           4
           4
           4
           4
           4
           4
           4
           4
           4
           4
           4
           4
           4
           4
           4
           4
           4
           4
           4
           4
           4
           4
           4
           4
           4
           4
           4
           4
           4
           4
           4
           4
           4
           4
           4
           4
           4
           4
           4
           4
           4
           4
           4
           4
           4
           4
           4
           4
           4
           4
           4
           4
           4
           4
           4
           4
           4
           4
           4
           4
           4
</DataArray>
<DataArray type="Float32" Name="qpotential" format="ascii">
  -2.6866035939233524E-002
  -1.9810661002238609E-002
  -7.8235922000007754E-003
  -9.2715406447983536E-003
  -1.3212572929184294E-002
  -2.4800300720272377E-002
  -1.7112176421224687E-002
  -3.1003321494380426E-002
  -8.6141530392386013E-003
  -9.5752476829382618E-003
  -1.0923630072875293E-002
  -1.0520863762505201E-002
  -3.0770463906754229E-002
  -1.5371616884128204E-002
  -8.3694091347788959E-003
  -8.7625210231267060E-003
  -2.5249862470724235E-002
  -1.3020204551111433E-002
  -8.0115558453058115E-003
  -8.2709299126122616E-003
  -9.4730506000858892E-003
  -9.0308328762651584E-003
  -8.2743350254708883E-003
  -8.9638823963620433E-003
  -8.4846694039131254E-003
  -2.6786930468224227E-002
  -1.5733985212427828E-002
  -7.6866262442648837E-003
  -9.1467754401311791E-003
  -8.4002253722260511E-003
  -2.7883475166361121E-002
  -1.5782452347119332E-002
  -2.5913434092372217E-002
  -1.0004432426969627E-002
  -1.0454047732109921E-002
  -1.5508201616462833E-002
  -2.8123098167157166E-002
  -1.0443924840268133E-002
  -1.1184388124449393E-002
  -1.7216209630439162E-002
  -1.0283808550846185E-002
  -1.0596553082502029E-002
  -1.0143697618325646E-002
  -9.1141393825817894E-003
  -9.3511706423836990E-003
  -3.0290589452849188E-002
  -1.5211575588903993E-002
  -1.0536539820177247E-002
  -2.6764222629553195E-002
  -1.3306137401024388E-002
  -9.6859246476747665E-003
  -1.0001548948181609E-002
  -7.9169543148879147E-003
 -0.62721816217489179     
  -6.0969605992683265E-002
  -9.5538733129978751E-002
  -9.3766496093440357E-002
 -0.17555252688963521     
 -0.10449511262465352     
  -1.2909327815433393E-002
  -8.2055270790755679E-003
  -8.9352603617395693E-003
  -1.0842130156485635E-002
  -9.4764714589494863E-003
  -8.4704492695733477E-003
  -1.0035596507486573E-002
  -2.2873258247418895E-002
  -2.5233076653824290E-002
  -2.1018806345436975E-002
  -1.3189744914703153E-002
  -2.8232194285840867E-002
  -1.5849812787675614E-002
  -2.4831469684677112E-002
  -8.4804600624931118E-003
  -2.3931259954628640E-002
  -9.6325692525276244E-003
  -9.2538492384177402E-003
  -8.0501337166651518E-003
  -7.3743330036687427E-003
  -9.0215066597548969E-003
  -8.8631946496608455E-003
  -8.6506563492587969E-003
  -7.8049739682764692E-003
  -7.1640012026920634E-003
  -7.4861518837753297E-003
  -8.7212259969674591E-003
  -8.1886967071922567E-003
  -8.3945527335939647E-003
  -9.1709663819175679E-003
  -1.0676025597422608E-002
  -2.7118656160910415E-002
  -2.8310218596613534E-002
  -2.7222973850641763E-002
  -9.8937669756065400E-003
  -1.4093372277486818E-002
  -1.0021515821900409E-002
  -8.5989374092539615E-003
  -8.4175187623791847E-003
  -1.6690386331270214E-002
  -8.2854192534037325E-003
  -9.9864343492107512E-003
  -1.5585763652906716E-002
  -7.2344734091296528E-003
  -7.6363310075043510E-003
  -7.5217886955871839E-003
  -1.0123861691109407E-002
  -8.7515616013503997E-003
  -8.3947267610401371E-003
  -7.5976672870276887E-003
  -7.6341203296332143E-003
  -7.3453375071853505E-003
  -3.3640744564142948E-002
  -1.6949768124986424E-002
  -1.0186249462081302E-002
  -9.7688670180933468E-003
  -9.1868545938241578E-003
  -1.0819290888494894E-002
  -1.0227205265946383E-002
  -7.4379024255630142E-003
  -7.8583325055988484E-003
  -8.1749430453510203E-003
  -8.2274747968014254E-003
  -8.1345503525314319E-003
  -8.4464663627852616E-003
  -7.7132201262716613E-003
  -7.4983600687792079E-003
  -1.2190131425051424E-002
  -7.3902601599515946E-003
  -7.6775348156379337E-003
  -2.9374899929856584E-002
  -1.1857115317246404E-002
  -1.7647296401412875E-002
  -2.4907838340551929E-002
  -9.2646485561077210E-003
  -9.9419139562255208E-003
  -1.4960462200691948E-002
  -8.5124500537532288E-003
  -8.8153582512443939E-003
  -9.4040326036100887E-003
  -8.3917030072036825E-003
  -2.7303225488110650E-002
  -1.3442931994389465E-002
  -9.3399888421460096E-003
  -2.8689218900713166E-002
  -1.4613699931798592E-002
  -3.0833803485735629E-002
  -1.8476321322267428E-002
  -1.1467651343911563E-002
  -1.2355147644395133E-002
  -2.5158728158837126E-002
  -1.5068831911866590E-002
  -9.6424270717210079E-003
  -1.0366431177233662E-002
  -8.1874935361175519E-003
  -7.4729320665178093E-003
  -9.1068287333720358E-003
  -8.9618363460133837E-003
  -9.2822746163033504E-003
  -7.3192837105450336E-003
  -7.5583031025637905E-003
  -8.0919701277534870E-003
  -1.0920687739079310E-002
  -9.6780156127586770E-003
  -1.0311061281474045E-002
  -1.1275023182029173E-002
  -8.5573751838266699E-003
  -9.4032733614881434E-003
  -1.3520580669822634E-002
  -9.4192247887203272E-003
  -9.2381386923918798E-003
  -9.0457036232127214E-003
  -2.3769928481309960E-002
  -1.2408241275278285E-002
  -7.7511434803081026E-003
  -7.7710288722741584E-003
  -7.6459730548870666E-003
  -7.5152850288863907E-003
  -7.6953956827138818E-003
  -2.7796903319655668E-002
  -1.0023247964376678E-002
  -1.4997017924161105E-002
  -7.7323524921750035E-003
  -7.6354932670631053E-003
  -7.5214983638315445E-003
  -8.0143073186855884E-003
  -7.6326303512515457E-003
  -7.6450001894107509E-003
  -2.4133256636806287E-002
  -1.2883130766627147E-002
  -7.2105174897246667E-003
  -7.8878169459164291E-003
  -7.9532365977532694E-003
  -7.9396253674220343E-003
  -7.4023741084889988E-003
  -7.3836820533666166E-003
  -2.5318955893297430E-002
  -1.3575192936476748E-002
  -9.4084256707752788E-003
  -8.0318661731673489E-003
  -8.2271117447828418E-003
  -7.3916730953798877E-003
  -7.4716068204844846E-003
  -8.8140510348332698E-003
  -8.8928788962603870E-003
  -7.1974053662261159E-003
  -7.2159805365226738E-003
  -8.2850677983552744E-003
  -8.0948297695201728E-003
  -1.4862742711372227E-002
  -1.0126114516942144E-002
  -9.2819531963347843E-003
  -7.3047107916923487E-003
  -7.3155117774696106E-003
  -7.2392251542022605E-003
  -7.5337072221841658E-003
  -7.7080505192790054E-003
  -7.6113506068220555E-003
  -2.2851539516483790E-002
  -2.3251594458698024E-002
  -1.3946373079172240E-002
</DataArray>
</CellData>
<Points>
<DataArray type="Float32" NumberOfComponents="3" format="ascii">
-3.79179000 -60.1377000 111.366000
0.139419000E-03 -62.4193000 110.088000
-0.648746000E-05 -58.7416000 113.254000
-3.88046000 -84.2933000 81.0214000
-0.436479000E-05 -85.3660000 79.1134000
0.329433000E-05 -83.3619000 83.5318000
-4.78460000 -79.3680000 89.0391000
0.194084000E-05 -80.9789000 87.7578000
0.123508000E-04 -78.2855000 91.7940000
0.344695000E-04 -69.2606000 103.211000
0.504619000E-04 -65.9455000 106.754000
-4.67124000 -66.7982000 104.768000
-4.36872000 -81.9785000 85.1458000
-7.20323000 -82.5702000 83.4357000
-4.26702000 -63.5542000 108.125000
-7.02650000 -61.9738000 108.908000
-5.60478000 -76.9132000 92.2320000
-5.39683000 -69.3348000 101.772000
-9.59703000 -64.1257000 105.966000
-9.84816000 -80.2901000 86.2048000
0.638401000E-04 -75.4010000 95.6965000
0.253896000E-04 -72.3969000 99.5079000
-3.12859000 -73.3712000 97.4777000
-2.95518000 -71.2637000 100.134000
-6.19071000 -71.8486000 98.5488000
-3.02122000 -75.6544000 94.5682000
-6.31882000 -74.1621000 95.6278000
-13.2183000 -72.0255000 95.9421000
-12.9194000 -74.9036000 92.5518000
-9.62959000 -75.2666000 93.2377000
-8.99734000 -72.7156000 96.6326000
-12.7129000 -69.2068000 99.3628000
-9.54973000 -70.0191000 99.6621000
-11.7843000 -77.6991000 89.2716000
-8.36776000 -77.9474000 90.0588000
-11.4871000 -66.5539000 102.735000
-8.16828000 -67.4301000 103.041000
3.38702000 -64.2699000 108.781000
2.93542000 -82.7521000 84.0039000
-0.227166000E-05 -58.7310000 113.265000
1.67941000 -59.0148000 113.266000
4.54661000 -57.6281000 114.694000
-0.223556000E-05 -58.7195000 113.274000
1.12866000 -85.3470000 78.5417000
0.197326000E-06 -85.4291000 78.9610000
0.165519000E-07 -85.4902000 78.8077000
4.54147000 -85.1780000 77.3159000
4.07441000 -84.1370000 80.3798000
5.17017000 -81.4516000 86.3503000
7.52797000 -83.2846000 81.6786000
4.13189000 -61.3016000 111.569000
11.1539000 -80.9451000 86.7244000
9.27909000 -84.8549000 76.6597000
8.55096000 -60.4721000 112.364000
9.36026000 -57.0013000 115.245000
34.4694000 -70.7039000 94.9624000
33.8441000 -67.6404000 98.7172000
30.3809000 -70.4962000 97.3969000
27.0324000 -70.2669000 99.1214000
23.5640000 -69.5387000 101.081000
22.4669000 -72.9736000 97.4837000
32.3284000 -64.7593000 102.364000
28.6169000 -68.1540000 100.744000
27.3508000 -67.1879000 102.251000
24.8002000 -65.8744000 104.459000
10.2279000 -68.6815000 104.237000
7.68343000 -72.5996000 99.7592000
12.8043000 -71.8262000 100.492000
12.3354000 -76.7252000 94.1842000
7.61055000 -76.0206000 95.2850000
9.70494000 -78.6494000 91.2807000
10.0891000 -64.5780000 108.454000
14.5289000 -65.7319000 106.769000
12.8056000 -82.5053000 82.5898000
16.8481000 -81.3914000 84.4440000
17.9587000 -71.3453000 100.355000
14.8246000 -74.2076000 97.4024000
14.0111000 -78.6692000 90.8943000
15.0580000 -68.8016000 103.577000
20.7603000 -80.1532000 86.2397000
25.0306000 -79.0358000 86.9412000
20.6083000 -78.6921000 89.4444000
18.8610000 -67.7991000 103.994000
13.2774000 -62.2098000 110.303000
24.7495000 -80.5986000 83.4856000
23.1006000 -82.5372000 79.0877000
27.0431000 -81.0326000 81.3541000
27.0405000 -60.1176000 109.088000
23.2820000 -58.4842000 111.747000
24.1072000 -62.4219000 107.945000
12.2577000 -83.5992000 79.7025000
14.0534000 -84.4224000 76.7129000
16.8709000 -63.1590000 108.863000
20.1478000 -64.4881000 107.000000
2.94548000 -67.2231000 105.765000
5.12546000 -69.5478000 103.338000
20.2178000 -61.0706000 110.165000
16.8341000 -79.8409000 88.0917000
20.3344000 -81.9015000 81.9523000
3.32744000 -79.9028000 89.3264000
5.21556000 -78.1643000 92.0954000
6.57997000 -63.5049000 109.655000
6.28206000 -66.4074000 106.790000
6.75553000 -79.9083000 89.1921000
14.2322000 -56.8896000 114.898000
12.2726000 -59.3524000 113.018000
17.6479000 -78.2276000 91.0740000
24.2720000 -77.3327000 90.6185000
20.4654000 -76.3047000 93.5699000
18.9440000 -57.3893000 113.709000
15.8801000 -59.9595000 111.971000
18.7156000 -83.6727000 77.5230000
15.8429000 -82.9810000 80.4988000
30.2390000 -78.9755000 84.2623000
30.0603000 -62.2282000 105.878000
27.3190000 -73.3319000 95.3312000
3.79402000 -74.1602000 97.6131000
3.31225000 -76.4459000 94.5228000
31.4288000 -72.6609000 94.1794000
34.0218000 -73.6691000 91.2303000
18.4364000 -74.4411000 96.5734000
24.3681000 -75.2696000 93.8714000
28.3686000 -77.1530000 88.8817000
32.5389000 -76.4402000 87.6140000
16.3003000 -76.5410000 94.0329000
3.33103000 -71.6458000 100.746000
11.0552000 -74.3568000 97.4961000
30.1818000 -74.9400000 91.5863000
27.1199000 -75.8052000 91.8640000
</DataArray>
</Points>
<Cells>
<DataArray type="Int32" Name="connectivity" format="ascii">
0 1 2
3 4 5
6 7 8
9 10 11
12 3 5
13 3 12
1 0 14
14 0 15
8 16 6
11 17 9
10 1 14
14 11 10
14 15 18
18 11 14
12 5 7
7 6 12
19 13 12
12 6 19
20 21 22
21 9 23
17 24 23
23 9 17
20 22 25
25 22 26
22 21 23
27 28 29
27 29 30
25 8 20
25 26 16
16 8 25
31 27 32
30 32 27
28 33 29
16 26 29
16 29 34
34 29 33
32 35 31
32 24 17
36 32 17
35 32 36
26 30 29
24 32 30
30 26 24
22 23 24
22 24 26
36 18 35
11 18 36
36 17 11
33 19 34
34 19 6
6 16 34
37 1 10
7 5 38
39 2 40
41 42 40
40 42 39
43 4 44
43 45 46
44 45 43
5 4 47
48 7 38
49 48 38
50 1 37
38 5 47
48 49 51
38 47 49
47 4 43
46 47 43
46 52 49
46 49 47
53 54 41
50 53 41
55 56 57
58 59 60
56 61 62
63 62 61
63 64 59
65 66 67
68 69 70
71 65 72
73 51 49
74 51 73
75 67 76
77 68 70
70 51 77
78 72 65
65 67 78
79 80 81
59 64 82
53 71 83
84 85 86
87 88 89
90 52 91
90 73 49
49 52 90
92 72 93
94 10 9
9 95 94
96 89 88
74 79 97
98 84 79
85 84 98
8 7 99
99 7 48
99 100 8
101 71 53
65 71 102
102 95 65
103 51 70
48 51 103
70 100 103
104 54 105
105 54 53
72 92 83
72 83 71
102 71 101
101 53 50
37 101 50
81 106 97
81 97 79
59 75 60
107 81 80
75 78 67
95 102 94
99 48 103
99 103 100
105 53 83
108 106 81
107 108 81
88 109 96
92 96 110
110 96 109
98 111 85
98 79 74
112 98 74
111 98 112
75 59 82
82 72 78
93 72 82
75 82 78
84 86 113
113 80 84
84 80 79
114 87 89
89 64 114
110 109 104
105 110 104
92 110 83
110 105 83
91 111 112
90 91 112
74 73 112
73 90 112
95 66 65
70 69 100
37 10 94
102 37 94
37 102 101
106 77 97
97 77 51
51 74 97
92 93 96
82 64 93
93 64 89
93 89 96
58 60 115
57 58 115
57 56 62
57 62 58
63 59 58
62 63 58
63 61 114
64 63 114
116 21 20
116 69 66
69 116 117
117 100 69
117 116 20
118 119 55
118 57 115
55 57 118
60 75 120
120 75 76
120 108 60
115 60 121
108 107 121
121 60 108
122 113 123
80 113 122
124 106 108
125 116 66
66 95 125
21 116 125
126 68 76
69 68 126
127 123 119
122 123 127
122 127 128
9 21 125
9 125 95
117 20 8
100 117 8
122 128 107
80 122 107
77 106 124
77 124 68
128 115 121
128 121 107
119 118 127
127 118 115
115 128 127
76 68 124
124 120 76
108 120 124
76 67 126
126 67 66
66 69 126
40 50 41
40 2 1
50 40 1
</DataArray>